# 2-Makefile

# Setting variables
CC = gcc
SRC = main.c school.c
NAME = school
OBJ = $(SRC:%.c=%.o) # Substitution References
CFLAGS = -Wall -Werror -Wextra -pedantic

# This is declare to making this rules a prerequisite of the special target
.PHONY: re oclean fclean clean all

# Rule all: Build the holberton executable file
# 1. Implicity rule to updating .o files
# 2. Then compile with .o files and executable
all: $(NAME)

$(NAME): m.h $(OBJ)
	$(CC) $(OBJ) -o $(NAME)
# $@: replace by objective name
#$(CC) $(OBJ) -o $@

# Deletes all Emacs and Vim temporary files along with the executable
clean:
	$(RM) -f *~ $(NAME)

# Deletes the object files
oclean:
	$(RM) -f $(OBJ)

# Deletes all Emacs and Vim temporary files, the executable,
# and the object files
fclean: clean oclean

# Forces recompilation of all source files
re: oclean all
